# vtk DataFile Version 2.0
Comment: Scalar data
ASCII
DATASET UNSTRUCTURED_GRID
POINTS 12 float
0 0 0
1 0 0
1 1 0
0 1 0
0.5 0 0
1 0.5 0
0.5 1 0
0 0.5 0
0.29375 0.70625 0
0.375 0.375 0
0.647917 0.64375 0
0.71875 0.28125 0

CELLS 14 56
3 5 2 10
3 7 0 9
3 0 4 9
3 2 6 10
3 4 1 11
3 1 5 11
3 6 3 8
3 3 7 8
3 5 10 11
3 8 7 9
3 8 9 10
3 9 4 11
3 10 9 11
3 6 8 10


CELL_TYPES 14
5
5
5
5
5
5
5
5
5
5
5
5
5
5

POINT_DATA 12
SCALARS u float 1
LOOKUP_TABLE default
0
0
0
0
0
0
0
0
0.588768
0.812739
0.771876
0.560397
